Parallel program dscf_mpi will be taken out of the TURBODIR directory.
Found environment variable SKIP_PARASTAT
   -> do NOT perform a parallel statistics run for the task
      distribution, use automatic task generation instead
STARTING dscf ON 8 PROCESSORS!
RUNNING PROGRAM /mnt/lxfs2/Turbomole/6.6/bin/em64t-unknown-linux-gnu_mpi/dscf_mpi.
PLEASE WAIT UNTIL dscf HAS FINISHED.
Look for the output in slave1.output.
master: regular termination
 dscf ended normally
  this is node-proc. number 1 running on node thnec245
  the total number of node-proc. spawned is            8
  parallel platform: MPP, or cluster with fast interconnect

 dscf (thnec245) : TURBOMOLE V6.6( 19134 ) 3 Jun 2014 at 14:49:08
 Copyright (C) 2014 TURBOMOLE GmbH, Karlsruhe


    2014-12-08 16:06:21.111 


 SCF run will be profiled !



                             d s c f - program

                   idea & directorship : reinhart ahlrichs
                   program development : marco haeser
                                         michael baer
                           dft version : oliver treutler
           parallelized version : malte v. arnim, gina corongiu, GMD 


                          quantum chemistry group
                          universitaet  karlsruhe
                                  germany




                          References             
                                                 
          TURBOMOLE:                             
              R. Ahlrichs, M. Baer, M. Haeser, H. Horn, and
              C. Koelmel
              Electronic structure calculations on workstation
              computers: the program system TURBOMOLE
              Chem. Phys. Lett. 162: 165 (1989)
          Density Functional:                              
              O. Treutler and R. Ahlrichs                      
              Efficient Molecular Numerical Integration Schemes
              J. Chem. Phys. 102: 346 (1995)                   
          Parallel Version:                                
              Performance of parallel TURBOMOLE for Density    
              Functional Calculations                          
              M. v. Arnim and R. Ahlrichs                      
              J. Comp. Chem. 19: 1746 (1998)                   
                                         



 UHF mode switched on !

 W A R N I N G : BASIS SET NICKNAME none DOES NOT CONTAIN ATOMIC SYMBOL mg !



              +--------------------------------------------------+
              | Atomic coordinate, charge and isotop information |
              +--------------------------------------------------+

                    atomic coordinates            atom    charge  isotop
         -0.00017743   -0.00019833    0.18457497    ni    28.000     0
         -3.97539052   -3.97540224   -0.02280304    mg    12.000     0
          3.97565369   -3.97559329   -0.02302648    mg    12.000     0
          0.00004460   -3.96122043   -3.92079167    mg    12.000     0
         -3.96121348    0.00004214   -3.92078526    mg    12.000     0
         -3.97557785    3.97566128   -0.02302652    mg    12.000     0
          3.96131511    0.00004235   -3.92084464    mg    12.000     0
          3.97585077    3.97585067   -0.02325162    mg    12.000     0
          0.00004532    3.96129472   -3.92085248    mg    12.000     0
         -3.97945105   -3.97944121   -3.95408518    o      8.000     0
          3.97953329   -3.97945090   -3.95407334    o      8.000     0
          0.00001931   -4.02481359    0.06181789    o      8.000     0
         -4.02480469    0.00003829    0.06181787    o      8.000     0
         -3.97944079    3.97952105   -3.95408137    o      8.000     0
          0.00004653   -0.00000140   -3.89399633    o      8.000     0
          4.02504106    0.00003840    0.06231003    o      8.000     0
          3.97952717    3.97952893   -3.95407088    o      8.000     0
          0.00002213    4.02503650    0.06229401    o      8.000     0
          0.00948197    0.00942607    3.98235167    c      6.000     0
          0.02516265    0.02500446    6.10339377    o      8.000     0
         -3.97772768   -3.97772624   -7.92946809    mg    12.000     0
          0.00000000   -7.95811800   -7.92652004    mg    12.000     0
          3.97781820   -3.97774648   -7.92949627    mg    12.000     0
          0.00000000   -3.97903399  -11.93710197    mg    12.000     0
         -7.95811821    0.00000000   -7.92651851    mg    12.000     0
         -3.97903399    0.00000000  -11.93710197    mg    12.000     0
         -3.97774939    3.97781572   -7.92949555    mg    12.000     0
         -0.00001631   -0.00001584   -7.92902336    mg    12.000     0
          3.97903399    0.00000000  -11.93710197    mg    12.000     0
          3.97784050    3.97783649   -7.92952493    mg    12.000     0
          0.00000000    3.97903399  -11.93710197    mg    12.000     0
          7.95811821    0.00000000   -7.92651851    mg    12.000     0
          0.00000000    7.95811800   -7.92652004    mg    12.000     0
         -3.97903399  -11.93710197    0.00000000    mg    12.000     0
         -7.95806798  -11.93710197   -3.97903399    mg    12.000     0
          3.97903399  -11.93710197    0.00000000    mg    12.000     0
          0.00000000  -11.93710197   -3.97903399    mg    12.000     0
          7.95806798  -11.93710197   -3.97903399    mg    12.000     0
        -11.93710197   -7.95806798   -3.97903399    mg    12.000     0
        -11.93710197   -3.97903399    0.00000000    mg    12.000     0
         -7.95806798   -7.95806798    0.00000000    mg    12.000     0
         -3.97509805   -7.95817199   -3.94468913    mg    12.000     0
         -7.95817685   -3.97508968   -3.94468221    mg    12.000     0
          0.00022185   -7.95833936    0.01766140    mg    12.000     0
          3.97492796   -7.95817144   -3.94457472    mg    12.000     0
          7.95806798   -7.95806798    0.00000000    mg    12.000     0
         11.93710197   -7.95806798   -3.97903399    mg    12.000     0
         11.93710197   -3.97903399    0.00000000    mg    12.000     0
          7.95817581   -3.97492467   -3.94457718    mg    12.000     0
        -11.93710197    0.00000000   -3.97903399    mg    12.000     0
        -11.93710197    3.97903399    0.00000000    mg    12.000     0
         -7.95835201    0.00019547    0.01765044    mg    12.000     0
         -7.95817581    3.97492467   -3.94457718    mg    12.000     0
          7.95835201    0.00019547   -0.01765044    mg    12.000     0
         11.93710197    0.00000000   -3.97903399    mg    12.000     0
         11.93710197    3.97903399    0.00000000    mg    12.000     0
          7.95817685    3.97508968   -3.94468221    mg    12.000     0
        -11.93710197    7.95806798   -3.97903399    mg    12.000     0
         -7.95806798    7.95806798    0.00000000    mg    12.000     0
         -3.97492796    7.95817144   -3.94457472    mg    12.000     0
         -3.97903399   11.93710197    0.00000000    mg    12.000     0
         -7.95806798   11.93710197   -3.97903399    mg    12.000     0
          0.00022185    7.95833936   -0.01766140    mg    12.000     0
          3.97509805    7.95817199   -3.94468913    mg    12.000     0
          3.97903399   11.93710197    0.00000000    mg    12.000     0
          0.00000000   11.93710197   -3.97903399    mg    12.000     0
          7.95806798    7.95806798    0.00000000    mg    12.000     0
         11.93710197    7.95806798   -3.97903399    mg    12.000     0
          7.95806798   11.93710197   -3.97903399    mg    12.000     0
 
       center of nuclear mass  :    0.00033804    0.00033333   -3.31720714
       center of nuclear charge:    0.00034237    0.00033765   -3.31828964

 W A R N I N G : BASIS SET NICKNAME none DOES NOT CONTAIN ATOMIC SYMBOL mg !


  WARNING : no basis functions have been specified for 

        21   mg      
        22   mg      
        23   mg      
        24   mg      
        25   mg      
        26   mg      
        27   mg      
        28   mg      
        29   mg      
        30   mg      
        31   mg      
        32   mg      
        33   mg      
        34   mg      
        35   mg      
        36   mg      
        37   mg      
        38   mg      
        39   mg      
        40   mg      
        41   mg      
        42   mg      
        43   mg      
        44   mg      
        45   mg      
        46   mg      
        47   mg      
        48   mg      
        49   mg      
        50   mg      
        51   mg      
        52   mg      
        53   mg      
        54   mg      
        55   mg      
        56   mg      
        57   mg      
        58   mg      
        59   mg      
        60   mg      
        61   mg      
        62   mg      
        63   mg      
        64   mg      
        65   mg      
        66   mg      
        67   mg      
        68   mg      
        69   mg      

              +--------------------------------------------------+
              |               basis set information              |
              +--------------------------------------------------+

              we will work with the 1s 3p 5d 7f 9g ... basis set
              ...i.e. with spherical basis functions...

   type   atoms  prim   cont   basis
   ---------------------------------------------------------------------------
    ni       1     72     44   DZDP   [8s7p3d|14s11p5d]
    mg       8     93     27   cc-pCVDZ   [5s4p2d|35s16p2d]
    o       10     43     23   aug-cc-pVDZ   [4s3p2d|18s5p2d]
    c        1     43     23   aug-cc-pVDZ   [4s3p2d|18s5p2d]
   ---------------------------------------------------------------------------
   total:   69   1289    513
   ---------------------------------------------------------------------------

   total number of primitive shells          :  133
   total number of contracted shells         :  205
   total number of cartesian basis functions :  554
   total number of SCF-basis functions       :  513


 W A R N I N G : BASIS SET NICKNAME none DOES NOT CONTAIN ATOMIC SYMBOL mg !


 integral neglect threshold       :  0.60E-12
 integral storage threshold THIZE :  0.10E+04
 integral storage threshold THIME :       500


 DENSITY CONVERGENCE CHECK SWITCHED ON !
 SCF CONVERGENCE IF RMS(delta[D]) <     0.1000000000E-06

 number of unique ecp types :           1

 symmetry group of the molecule :   c1 

 the group has the following generators :
   c1(z)

    1 symmetry operations found

 there are 1 real representations :   a   

 maximum number of shells which are related by symmetry :  1


    mo occupation :
   irrep   mo's   occupied
    a      513      106
 
 number of basis functions   :          513
 number of occupied orbitals :          106
 
 No pre-computed optimal task distribution found
   ... using automatic task generation

          ------------------------
          nuclear repulsion energy  :   5648.38229618    
          ------------------------

 
          -----------------
          -S integrals
          -----------------

 1e-integrals will be neglected if expon. factor < 0.603242E-13
 
          -----------------
          -T+V integrals
          -----------------

 1e-integrals will be neglected if expon. factor < 0.603242E-13
 
           ----------------
           -ecp-  integrals
           ----------------

         +--------------------------------------------------+
         |       EMBEDDING IN PERIODIC POINT CHARGES        |
         |             M. Sierka and A. Burow               |
         +--------------------------------------------------+

 
    +------------------------ Parameters ------------------------+
    -------------------------------------------------------------
      Maximum multipole moment used               : 25
      Multipole precision parameter               :  1.0000E-08
      Minimum separation between cells            :  3.0000E+00
    +-----------------------------------------------------------+
 
 Charge Neutrality tolerance :   0.1000000D-04
 Total charge                :   0.0000000D+00
 
 Cell vectors (au): 
               95.49674326          0.00000000          0.00000000
                0.00000000         95.49674326          0.00000000
                0.00000000          0.00000000        302.35618143

         +--------------------------------------------------+
         | Coordinates of all systems centered about cell 0 |
         +--------------------------------------------------+

 Redefined unit cell content (au): 
     Label               Cartesian Coordinates            Charge
      Mg      43.77295645   43.77294719   -0.02280304    2.000000
      O       43.76889592   43.76890822   -3.95408519   -2.000000
      Mg      51.72400066   43.77275614   -0.02302648    2.000000
      Mg      47.74839157   43.78712900   -3.92079167    2.000000
      O       51.72788027   43.76889852   -3.95407334   -2.000000
      O       47.74836628   43.72353584    0.06181789   -2.000000
      Mg      43.78713349   47.74839157   -3.92078526    2.000000
      Mg      43.77276912   51.72401071   -0.02302652    2.000000
      O       43.72354228   47.74838771    0.06181787   -2.000000
      O       43.76890618   51.72787048   -3.95408137   -2.000000
      Mg      47.74816954   47.74815110    0.18457498    2.000000
      O       47.74839350   47.74834803   -3.89399634   -2.000000
      Mg      51.70966208   47.74839178   -3.92084464    2.000000
      Mg      51.72419774   51.72420010   -0.02325162    2.000000
      Mg      47.74839229   51.70964415   -3.92085248    2.000000
      O       51.77338803   47.74838783    0.06231003   -2.000000
      O       51.72787414   51.72787836   -3.95407088   -2.000000
      O       47.74836910   51.77338593    0.06229401   -2.000000
      Mg      43.77061929   43.77062318   -7.92946810    2.000000
      Mg      47.74834697   39.79023142   -7.92652005    2.000000
      Mg      51.72616517   43.77060294   -7.92949627    2.000000
      Mg      47.74834697   43.76931544  -11.93710198    2.000000
      Mg      39.79022876   47.74834943   -7.92651852    2.000000
      Mg      43.76931298   47.74834943  -11.93710198    2.000000
      Mg      43.77059758   51.72616515   -7.92949555    2.000000
      Mg      47.74833066   47.74833359   -7.92902337    2.000000
      Mg      51.72738096   47.74834943  -11.93710198    2.000000
      Mg      51.72618747   51.72618592   -7.92952494    2.000000
      Mg      47.74834697   51.72738342  -11.93710198    2.000000
      Mg      55.70646519   47.74834943   -7.92651852    2.000000
      Mg      47.74834697   55.70646743   -7.92652005    2.000000
      Mg      43.76931298   35.81124745    0.00000000    2.000000
      Mg      39.79027899   35.81124745   -3.97903399    2.000000
      Mg      51.72738096   35.81124745    0.00000000    2.000000
      Mg      47.74834697   35.81124745   -3.97903399    2.000000
      Mg      55.70641496   35.81124745   -3.97903399    2.000000
      Mg      35.81124499   39.79028144   -3.97903399    2.000000
      Mg      35.81124499   43.76931544    0.00000000    2.000000
      Mg      39.79027899   39.79028144    0.00000000    2.000000
      Mg      43.77324892   39.79017743   -3.94468913    2.000000
      Mg      39.79017012   43.77325975   -3.94468221    2.000000
      Mg      47.74856882   39.79001006    0.01766140    2.000000
      Mg      51.72327493   39.79017798   -3.94457472    2.000000
      Mg      55.70641496   39.79028144    0.00000000    2.000000
      Mg      59.68544895   39.79028144   -3.97903399    2.000000
      Mg      59.68544895   43.76931544    0.00000000    2.000000
      Mg      55.70652278   43.77342476   -3.94457718    2.000000
      Mg      35.81124499   47.74834943   -3.97903399    2.000000
      Mg      35.81124499   51.72738342    0.00000000    2.000000
      Mg      39.78999496   47.74854490    0.01765044    2.000000
      Mg      39.79017116   51.72327410   -3.94457718    2.000000
      Mg      55.70669898   47.74854490   -0.01765044    2.000000
      Mg      59.68544895   47.74834943   -3.97903399    2.000000
      Mg      59.68544895   51.72738342    0.00000000    2.000000
      Mg      55.70652382   51.72343911   -3.94468221    2.000000
      Mg      35.81124499   55.70641741   -3.97903399    2.000000
      Mg      39.79027899   55.70641741    0.00000000    2.000000
      Mg      43.77341901   55.70652088   -3.94457472    2.000000
      Mg      43.76931298   59.68545141    0.00000000    2.000000
      Mg      39.79027899   59.68545141   -3.97903399    2.000000
      Mg      47.74856882   55.70668880   -0.01766140    2.000000
      Mg      51.72344502   55.70652142   -3.94468913    2.000000
      Mg      51.72738096   59.68545141    0.00000000    2.000000
      Mg      47.74834697   59.68545141   -3.97903399    2.000000
      Mg      55.70641496   55.70641741    0.00000000    2.000000
      Mg      59.68544895   55.70641741   -3.97903399    2.000000
      Mg      55.70641496   59.68545141   -3.97903399    2.000000
      Mg       3.97897305    3.97897551  -39.79033993    2.000000
      O        3.97897305    3.97897551  -43.76937392   -2.000000
      Mg      11.93704104    3.97897551  -39.79033993    2.000000
      Mg       7.95800704    3.97897551  -43.76937392    2.000000
      O       11.93704104    3.97897551  -43.76937392   -2.000000
      O        7.95800704    3.97897551  -39.79033993   -2.000000
      Mg      19.89510902    3.97897551  -39.79033993    2.000000
      Mg      15.91607503    3.97897551  -43.76937392    2.000000
      O       19.89510902    3.97897551  -43.76937392   -2.000000
      O       15.91607503    3.97897551  -39.79033993   -2.000000
      Mg      27.85317701    3.97897551  -39.79033993    2.000000
      Mg      23.87414301    3.97897551  -43.76937392    2.000000
      O       27.85317701    3.97897551  -43.76937392   -2.000000
      O       23.87414301    3.97897551  -39.79033993   -2.000000
      Mg      35.81124499    3.97897551  -39.79033993    2.000000
      Mg      31.83221100    3.97897551  -43.76937392    2.000000
      O       35.81124499    3.97897551  -43.76937392   -2.000000
      O       31.83221100    3.97897551  -39.79033993   -2.000000
      Mg      43.76931298    3.97897551  -39.79033993    2.000000
      Mg      39.79027899    3.97897551  -43.76937392    2.000000
      O       43.76931298    3.97897551  -43.76937392   -2.000000
      O       39.79027899    3.97897551  -39.79033993   -2.000000
      Mg      51.72738096    3.97897551  -39.79033993    2.000000
      Mg      47.74834697    3.97897551  -43.76937392    2.000000
      O       51.72738096    3.97897551  -43.76937392   -2.000000
      O       47.74834697    3.97897551  -39.79033993   -2.000000
      Mg      59.68544895    3.97897551  -39.79033993    2.000000
      Mg      55.70641496    3.97897551  -43.76937392    2.000000
      O       59.68544895    3.97897551  -43.76937392   -2.000000
      O       55.70641496    3.97897551  -39.79033993   -2.000000
      Mg      67.64351693    3.97897551  -39.79033993    2.000000
      Mg      63.66448294    3.97897551  -43.76937392    2.000000
      O       67.64351693    3.97897551  -43.76937392   -2.000000
      O       63.66448294    3.97897551  -39.79033993   -2.000000
      Mg      75.60158492    3.97897551  -39.79033993    2.000000
      Mg      71.62255093    3.97897551  -43.76937392    2.000000
      O       75.60158492    3.97897551  -43.76937392   -2.000000
      O       71.62255093    3.97897551  -39.79033993   -2.000000
      Mg      83.55965291    3.97897551  -39.79033993    2.000000
      Mg      79.58061891    3.97897551  -43.76937392    2.000000
      O       83.55965291    3.97897551  -43.76937392   -2.000000
      O       79.58061891    3.97897551  -39.79033993   -2.000000
      Mg      91.51772089    3.97897551  -39.79033993    2.000000
      Mg      87.53868690    3.97897551  -43.76937392    2.000000
      O       91.51772089    3.97897551  -43.76937392   -2.000000
      O       87.53868690    3.97897551  -39.79033993   -2.000000
      Mg       3.97897305    7.95800950  -43.76937392    2.000000
      Mg       3.97897305   11.93704349  -39.79033993    2.000000
      O        3.97897305    7.95800950  -39.79033993   -2.000000
      O        3.97897305   11.93704349  -43.76937392   -2.000000
      Mg       7.95800704    7.95800950  -39.79033993    2.000000
      O        7.95800704    7.95800950  -43.76937392   -2.000000
      Mg      11.93704104    7.95800950  -43.76937392    2.000000
      Mg      11.93704104   11.93704349  -39.79033993    2.000000
      Mg       7.95800704   11.93704349  -43.76937392    2.000000
      O       11.93704104    7.95800950  -39.79033993   -2.000000
      O       11.93704104   11.93704349  -43.76937392   -2.000000
      O        7.95800704   11.93704349  -39.79033993   -2.000000
      Mg      15.91607503    7.95800950  -39.79033993    2.000000
      O       15.91607503    7.95800950  -43.76937392   -2.000000
      Mg      19.89510902    7.95800950  -43.76937392    2.000000
      Mg      19.89510902   11.93704349  -39.79033993    2.000000
      Mg      15.91607503   11.93704349  -43.76937392    2.000000
      O       19.89510902    7.95800950  -39.79033993   -2.000000
      O       19.89510902   11.93704349  -43.76937392   -2.000000
      O       15.91607503   11.93704349  -39.79033993   -2.000000
      Mg      23.87414301    7.95800950  -39.79033993    2.000000
      O       23.87414301    7.95800950  -43.76937392   -2.000000
      Mg      27.85317701    7.95800950  -43.76937392    2.000000
      Mg      27.85317701   11.93704349  -39.79033993    2.000000
      Mg      23.87414301   11.93704349  -43.76937392    2.000000
      O       27.85317701    7.95800950  -39.79033993   -2.000000
      O       27.85317701   11.93704349  -43.76937392   -2.000000
      O       23.87414301   11.93704349  -39.79033993   -2.000000
      Mg      31.83221100    7.95800950  -39.79033993    2.000000
      O       31.83221100    7.95800950  -43.76937392   -2.000000
      Mg      35.81124499    7.95800950  -43.76937392    2.000000
      Mg      35.81124499   11.93704349  -39.79033993    2.000000
      Mg      31.83221100   11.93704349  -43.76937392    2.000000
      O       35.81124499    7.95800950  -39.79033993   -2.000000
      O       35.81124499   11.93704349  -43.76937392   -2.000000
      O       31.83221100   11.93704349  -39.79033993   -2.000000
      Mg      39.79027899    7.95800950  -39.79033993    2.000000
      O       39.79027899    7.95800950  -43.76937392   -2.000000
      Mg      43.76931298    7.95800950  -43.76937392    2.000000
      Mg      43.76931298   11.93704349  -39.79033993    2.000000
      Mg      39.79027899   11.93704349  -43.76937392    2.000000
      O       43.76931298    7.95800950  -39.79033993   -2.000000
      O       43.76931298   11.93704349  -43.76937392   -2.000000
      O       39.79027899   11.93704349  -39.79033993   -2.000000
      Mg      47.74834697    7.95800950  -39.79033993    2.000000
      O       47.74834697    7.95800950  -43.76937392   -2.000000
      Mg      51.72738096    7.95800950  -43.76937392    2.000000
      Mg      51.72738096   11.93704349  -39.79033993    2.000000
      Mg      47.74834697   11.93704349  -43.76937392    2.000000
      O       51.72738096    7.95800950  -39.79033993   -2.000000
      O       51.72738096   11.93704349  -43.76937392   -2.000000
      O       47.74834697   11.93704349  -39.79033993   -2.000000
      Mg      55.70641496    7.95800950  -39.79033993    2.000000
      O       55.70641496    7.95800950  -43.76937392   -2.000000
      Mg      59.68544895    7.95800950  -43.76937392    2.000000
      Mg      59.68544895   11.93704349  -39.79033993    2.000000
      Mg      55.70641496   11.93704349  -43.76937392    2.000000
      O       59.68544895    7.95800950  -39.79033993   -2.000000
      O       59.68544895   11.93704349  -43.76937392   -2.000000
      O       55.70641496   11.93704349  -39.79033993   -2.000000
      Mg      63.66448294    7.95800950  -39.79033993    2.000000
      O       63.66448294    7.95800950  -43.76937392   -2.000000
      Mg      67.64351693    7.95800950  -43.76937392    2.000000
      Mg      67.64351693   11.93704349  -39.79033993    2.000000
      Mg      63.66448294   11.93704349  -43.76937392    2.000000
      O       67.64351693    7.95800950  -39.79033993   -2.000000
      O       67.64351693   11.93704349  -43.76937392   -2.000000
      O       63.66448294   11.93704349  -39.79033993   -2.000000
      Mg      71.62255093    7.95800950  -39.79033993    2.000000
      O       71.62255093    7.95800950  -43.76937392   -2.000000
      Mg      75.60158492    7.95800950  -43.76937392    2.000000
      Mg      75.60158492   11.93704349  -39.79033993    2.000000
      Mg      71.62255093   11.93704349  -43.76937392    2.000000
      O       75.60158492    7.95800950  -39.79033993   -2.000000
      O       75.60158492   11.93704349  -43.76937392   -2.000000
      O       71.62255093   11.93704349  -39.79033993   -2.000000
      Mg      79.58061891    7.95800950  -39.79033993    2.000000
      O       79.58061891    7.95800950  -43.76937392   -2.000000
      Mg      83.55965291    7.95800950  -43.76937392    2.000000
      Mg      83.55965291   11.93704349  -39.79033993    2.000000
      Mg      79.58061891   11.93704349  -43.76937392    2.000000
      O       83.55965291    7.95800950  -39.79033993   -2.000000
      O       83.55965291   11.93704349  -43.76937392   -2.000000
      O       79.58061891   11.93704349  -39.79033993   -2.000000
      Mg      87.53868690    7.95800950  -39.79033993    2.000000
      O       87.53868690    7.95800950  -43.76937392   -2.000000
      Mg      91.51772089    7.95800950  -43.76937392    2.000000
      Mg      91.51772089   11.93704349  -39.79033993    2.000000
      Mg      87.53868690   11.93704349  -43.76937392    2.000000
      O       91.51772089    7.95800950  -39.79033993   -2.000000
      O       91.51772089   11.93704349  -43.76937392   -2.000000
      O       87.53868690   11.93704349  -39.79033993   -2.000000
      Mg       3.97897305   15.91607749  -43.76937392    2.000000
      Mg       3.97897305   19.89511148  -39.79033993    2.000000
      O        3.97897305   15.91607749  -39.79033993   -2.000000
      O        3.97897305   19.89511148  -43.76937392   -2.000000
      Mg       7.95800704   15.91607749  -39.79033993    2.000000
      O        7.95800704   15.91607749  -43.76937392   -2.000000
      Mg      11.93704104   15.91607749  -43.76937392    2.000000
      Mg      11.93704104   19.89511148  -39.79033993    2.000000
      Mg       7.95800704   19.89511148  -43.76937392    2.000000
      O       11.93704104   15.91607749  -39.79033993   -2.000000
      O       11.93704104   19.89511148  -43.76937392   -2.000000
      O        7.95800704   19.89511148  -39.79033993   -2.000000
      Mg      15.91607503   15.91607749  -39.79033993    2.000000
      O       15.91607503   15.91607749  -43.76937392   -2.000000
      Mg      19.89510902   15.91607749  -43.76937392    2.000000
      Mg      19.89510902   19.89511148  -39.79033993    2.000000
      Mg      15.91607503   19.89511148  -43.76937392    2.000000
      O       19.89510902   15.91607749  -39.79033993   -2.000000
      O       19.89510902   19.89511148  -43.76937392   -2.000000
      O       15.91607503   19.89511148  -39.79033993   -2.000000
      Mg      23.87414301   15.91607749  -39.79033993    2.000000
      O       23.87414301   15.91607749  -43.76937392   -2.000000
      Mg      27.85317701   15.91607749  -43.76937392    2.000000
      Mg      27.85317701   19.89511148  -39.79033993    2.000000
      Mg      23.87414301   19.89511148  -43.76937392    2.000000
      O       27.85317701   15.91607749  -39.79033993   -2.000000
      O       27.85317701   19.89511148  -43.76937392   -2.000000
      O       23.87414301   19.89511148  -39.79033993   -2.000000
      Mg      31.83221100   15.91607749  -39.79033993    2.000000
      O       31.83221100   15.91607749  -43.76937392   -2.000000
      Mg      35.81124499   15.91607749  -43.76937392    2.000000
      Mg      35.81124499   19.89511148  -39.79033993    2.000000
      Mg      31.83221100   19.89511148  -43.76937392    2.000000
      O       35.81124499   15.91607749  -39.79033993   -2.000000
      O       35.81124499   19.89511148  -43.76937392   -2.000000
      O       31.83221100   19.89511148  -39.79033993   -2.000000
      Mg      39.79027899   15.91607749  -39.79033993    2.000000
      O       39.79027899   15.91607749  -43.76937392   -2.000000
      Mg      43.76931298   15.91607749  -43.76937392    2.000000
      Mg      43.76931298   19.89511148  -39.79033993    2.000000
      Mg      39.79027899   19.89511148  -43.76937392    2.000000
      O       43.76931298   15.91607749  -39.79033993   -2.000000
      O       43.76931298   19.89511148  -43.76937392   -2.000000
      O       39.79027899   19.89511148  -39.79033993   -2.000000
      Mg      47.74834697   15.91607749  -39.79033993    2.000000
      O       47.74834697   15.91607749  -43.76937392   -2.000000
      Mg      51.72738096   15.91607749  -43.76937392    2.000000
      Mg      51.72738096   19.89511148  -39.79033993    2.000000
      Mg      47.74834697   19.89511148  -43.76937392    2.000000
      O       51.72738096   15.91607749  -39.79033993   -2.000000
      O       51.72738096   19.89511148  -43.76937392   -2.000000
      O       47.74834697   19.89511148  -39.79033993   -2.000000
      Mg      55.70641496   15.91607749  -39.79033993    2.000000
      O       55.70641496   15.91607749  -43.76937392   -2.000000
      Mg      59.68544895   15.91607749  -43.76937392    2.000000
      Mg      59.68544895   19.89511148  -39.79033993    2.000000
      Mg      55.70641496   19.89511148  -43.76937392    2.000000
      O       59.68544895   15.91607749  -39.79033993   -2.000000
      O       59.68544895   19.89511148  -43.76937392   -2.000000
      O       55.70641496   19.89511148  -39.79033993   -2.000000
      Mg      63.66448294   15.91607749  -39.79033993    2.000000
      O       63.66448294   15.91607749  -43.76937392   -2.000000
      Mg      67.64351693   15.91607749  -43.76937392    2.000000
      Mg      67.64351693   19.89511148  -39.79033993    2.000000
      Mg      63.66448294   19.89511148  -43.76937392    2.000000
      O       67.64351693   15.91607749  -39.79033993   -2.000000
      O       67.64351693   19.89511148  -43.76937392   -2.000000
      O       63.66448294   19.89511148  -39.79033993   -2.000000
      Mg      71.62255093   15.91607749  -39.79033993    2.000000
      O       71.62255093   15.91607749  -43.76937392   -2.000000
      Mg      75.60158492   15.91607749  -43.76937392    2.000000
      Mg      75.60158492   19.89511148  -39.79033993    2.000000
      Mg      71.62255093   19.89511148  -43.76937392    2.000000
      O       75.60158492   15.91607749  -39.79033993   -2.000000
      O       75.60158492   19.89511148  -43.76937392   -2.000000
      O       71.62255093   19.89511148  -39.79033993   -2.000000
      Mg      79.58061891   15.91607749  -39.79033993    2.000000
      O       79.58061891   15.91607749  -43.76937392   -2.000000
      Mg      83.55965291   15.91607749  -43.76937392    2.000000
      Mg      83.55965291   19.89511148  -39.79033993    2.000000
      Mg      79.58061891   19.89511148  -43.76937392    2.000000
      O       83.55965291   15.91607749  -39.79033993   -2.000000
      O       83.55965291   19.89511148  -43.76937392   -2.000000
      O       79.58061891   19.89511148  -39.79033993   -2.000000
      Mg      87.53868690   15.91607749  -39.79033993    2.000000
      O       87.53868690   15.91607749  -43.76937392   -2.000000
      Mg      91.51772089   15.91607749  -43.76937392    2.000000
      Mg      91.51772089   19.89511148  -39.79033993    2.000000
      Mg      87.53868690   19.89511148  -43.76937392    2.000000
      O       91.51772089   15.91607749  -39.79033993   -2.000000
      O       91.51772089   19.89511148  -43.76937392   -2.000000
      O       87.53868690   19.89511148  -39.79033993   -2.000000
      Mg       3.97897305   23.87414547  -43.76937392    2.000000
      Mg       3.97897305   27.85317946  -39.79033993    2.000000
      O        3.97897305   23.87414547  -39.79033993   -2.000000
      O        3.97897305   27.85317946  -43.76937392   -2.000000
      Mg       7.95800704   23.87414547  -39.79033993    2.000000
      O        7.95800704   23.87414547  -43.76937392   -2.000000
      Mg      11.93704104   23.87414547  -43.76937392    2.000000
      Mg      11.93704104   27.85317946  -39.79033993    2.000000
      Mg       7.95800704   27.85317946  -43.76937392    2.000000
      O       11.93704104   23.87414547  -39.79033993   -2.000000
      O       11.93704104   27.85317946  -43.76937392   -2.000000
      O        7.95800704   27.85317946  -39.79033993   -2.000000
      Mg      15.91607503   23.87414547  -39.79033993    2.000000
      O       15.91607503   23.87414547  -43.76937392   -2.000000
      Mg      19.89510902   23.87414547  -43.76937392    2.000000
      Mg      19.89510902   27.85317946  -39.79033993    2.000000
      Mg      15.91607503   27.85317946  -43.76937392    2.000000
      O       19.89510902   23.87414547  -39.79033993   -2.000000
      O       19.89510902   27.85317946  -43.76937392   -2.000000
      O       15.91607503   27.85317946  -39.79033993   -2.000000
      Mg      23.87414301   23.87414547  -39.79033993    2.000000
      O       23.87414301   23.87414547  -43.76937392   -2.000000
      Mg      27.85317701   23.87414547  -43.76937392    2.000000
      Mg      27.85317701   27.85317946  -39.79033993    2.000000
      Mg      23.87414301   27.85317946  -43.76937392    2.000000
      O       27.85317701   23.87414547  -39.79033993   -2.000000
      O       27.85317701   27.85317946  -43.76937392   -2.000000
      O       23.87414301   27.85317946  -39.79033993   -2.000000
      Mg      31.83221100   23.87414547  -39.79033993    2.000000
      O       31.83221100   23.87414547  -43.76937392   -2.000000
      Mg      35.81124499   23.87414547  -43.76937392    2.000000
      Mg      35.81124499   27.85317946  -39.79033993    2.000000
      Mg      31.83221100   27.85317946  -43.76937392    2.000000
      O       35.81124499   23.87414547  -39.79033993   -2.000000
      O       35.81124499   27.85317946  -43.76937392   -2.000000
      O       31.83221100   27.85317946  -39.79033993   -2.000000
      Mg      39.79027899   23.87414547  -39.79033993    2.000000
      O       39.79027899   23.87414547  -43.76937392   -2.000000
      Mg      43.76931298   23.87414547  -43.76937392    2.000000
      Mg      43.76931298   27.85317946  -39.79033993    2.000000
      Mg      39.79027899   27.85317946  -43.76937392    2.000000
      O       43.76931298   23.87414547  -39.79033993   -2.000000
      O       43.76931298   27.85317946  -43.76937392   -2.000000
      O       39.79027899   27.85317946  -39.79033993   -2.000000
      Mg      47.74834697   23.87414547  -39.79033993    2.000000
      O       47.74834697   23.87414547  -43.76937392   -2.000000
      Mg      51.72738096   23.87414547  -43.76937392    2.000000
      Mg      51.72738096   27.85317946  -39.79033993    2.000000
      Mg      47.74834697   27.85317946  -43.76937392    2.000000
      O       51.72738096   23.87414547  -39.79033993   -2.000000
      O       51.72738096   27.85317946  -43.76937392   -2.000000
      O       47.74834697   27.85317946  -39.79033993   -2.000000
      Mg      55.70641496   23.87414547  -39.79033993    2.000000
      O       55.70641496   23.87414547  -43.76937392   -2.000000
      Mg      59.68544895   23.87414547  -43.76937392    2.000000
      Mg      59.68544895   27.85317946  -39.79033993    2.000000
      Mg      55.70641496   27.85317946  -43.76937392    2.000000
      O       59.68544895   23.87414547  -39.79033993   -2.000000
      O       59.68544895   27.85317946  -43.76937392   -2.000000
      O       55.70641496   27.85317946  -39.79033993   -2.000000
      Mg      63.66448294   23.87414547  -39.79033993    2.000000
      O       63.66448294   23.87414547  -43.76937392   -2.000000
      Mg      67.64351693   23.87414547  -43.76937392    2.000000
      Mg      67.64351693   27.85317946  -39.79033993    2.000000
      Mg      63.66448294   27.85317946  -43.76937392    2.000000
      O       67.64351693   23.87414547  -39.79033993   -2.000000
      O       67.64351693   27.85317946  -43.76937392   -2.000000
      O       63.66448294   27.85317946  -39.79033993   -2.000000
      Mg      71.62255093   23.87414547  -39.79033993    2.000000
      O       71.62255093   23.87414547  -43.76937392   -2.000000
      Mg      75.60158492   23.87414547  -43.76937392    2.000000
      Mg      75.60158492   27.85317946  -39.79033993    2.000000
      Mg      71.62255093   27.85317946  -43.76937392    2.000000
      O       75.60158492   23.87414547  -39.79033993   -2.000000
      O       75.60158492   27.85317946  -43.76937392   -2.000000
      O       71.62255093   27.85317946  -39.79033993   -2.000000
      Mg      79.58061891   23.87414547  -39.79033993    2.000000
      O       79.58061891   23.87414547  -43.76937392   -2.000000
      Mg      83.55965291   23.87414547  -43.76937392    2.000000
      Mg      83.55965291   27.85317946  -39.79033993    2.000000
      Mg      79.58061891   27.85317946  -43.76937392    2.000000
      O       83.55965291   23.87414547  -39.79033993   -2.000000
      O       83.55965291   27.85317946  -43.76937392   -2.000000
      O       79.58061891   27.85317946  -39.79033993   -2.000000
      Mg      87.53868690   23.87414547  -39.79033993    2.000000
      O       87.53868690   23.87414547  -43.76937392   -2.000000
      Mg      91.51772089   23.87414547  -43.76937392    2.000000
      Mg      91.51772089   27.85317946  -39.79033993    2.000000
      Mg      87.53868690   27.85317946  -43.76937392    2.000000
      O       91.51772089   23.87414547  -39.79033993   -2.000000
      O       91.51772089   27.85317946  -43.76937392   -2.000000
      O       87.53868690   27.85317946  -39.79033993   -2.000000
      Mg       3.97897305   31.83221346  -43.76937392    2.000000
      Mg       3.97897305   35.81124745  -39.79033993    2.000000
      O        3.97897305   31.83221346  -39.79033993   -2.000000
      O        3.97897305   35.81124745  -43.76937392   -2.000000
      Mg       7.95800704   31.83221346  -39.79033993    2.000000
      O        7.95800704   31.83221346  -43.76937392   -2.000000
      Mg      11.93704104   31.83221346  -43.76937392    2.000000
      Mg      11.93704104   35.81124745  -39.79033993    2.000000
      Mg       7.95800704   35.81124745  -43.76937392    2.000000
      O       11.93704104   31.83221346  -39.79033993   -2.000000
      O       11.93704104   35.81124745  -43.76937392   -2.000000
      O        7.95800704   35.81124745  -39.79033993   -2.000000
      Mg      15.91607503   31.83221346  -39.79033993    2.000000
      O       15.91607503   31.83221346  -43.76937392   -2.000000
      Mg      19.89510902   31.83221346  -43.76937392    2.000000
      Mg      19.89510902   35.81124745  -39.79033993    2.000000
      Mg      15.91607503   35.81124745  -43.76937392    2.000000
      O       19.89510902   31.83221346  -39.79033993   -2.000000
      O       19.89510902   35.81124745  -43.76937392   -2.000000
      O       15.91607503   35.81124745  -39.79033993   -2.000000
      Mg      23.87414301   31.83221346  -39.79033993    2.000000
      O       23.87414301   31.83221346  -43.76937392   -2.000000
      Mg      27.85317701   31.83221346  -43.76937392    2.000000
      Mg      27.85317701   35.81124745  -39.79033993    2.000000
      Mg      23.87414301   35.81124745  -43.76937392    2.000000
      O       27.85317701   31.83221346  -39.79033993   -2.000000
      O       27.85317701   35.81124745  -43.76937392   -2.000000
      O       23.87414301   35.81124745  -39.79033993   -2.000000
      Mg      31.83221100   31.83221346  -39.79033993    2.000000
      O       31.83221100   31.83221346  -43.76937392   -2.000000
      Mg      35.81124499   31.83221346  -43.76937392    2.000000
      Mg      35.81124499   35.81124745  -39.79033993    2.000000
      Mg      31.83221100   35.81124745  -43.76937392    2.000000
      O       35.81124499   31.83221346  -39.79033993   -2.000000
      O       35.81124499   35.81124745  -43.76937392   -2.000000
      O       31.83221100   35.81124745  -39.79033993   -2.000000
      Mg      39.79027899   31.83221346  -39.79033993    2.000000
      O       39.79027899   31.83221346  -43.76937392   -2.000000
      Mg      43.76931298   31.83221346  -43.76937392    2.000000
      Mg      43.76931298   35.81124745  -39.79033993    2.000000
      Mg      39.79027899   35.81124745  -43.76937392    2.000000
      O       43.76931298   31.83221346  -39.79033993   -2.000000
      O       43.76931298   35.81124745  -43.76937392   -2.000000
      O       39.79027899   35.81124745  -39.79033993   -2.000000
      Mg      47.74834697   31.83221346  -39.79033993    2.000000
      O       47.74834697   31.83221346  -43.76937392   -2.000000
      Mg      51.72738096   31.83221346  -43.76937392    2.000000
      Mg      51.72738096   35.81124745  -39.79033993    2.000000
      Mg      47.74834697   35.81124745  -43.76937392    2.000000
      O       51.72738096   31.83221346  -39.79033993   -2.000000
      O       51.72738096   35.81124745  -43.76937392   -2.000000
      O       47.74834697   35.81124745  -39.79033993   -2.000000
      Mg      55.70641496   31.83221346  -39.79033993    2.000000
      O       55.70641496   31.83221346  -43.76937392   -2.000000
      Mg      59.68544895   31.83221346  -43.76937392    2.000000
      Mg      59.68544895   35.81124745  -39.79033993    2.000000
      Mg      55.70641496   35.81124745  -43.76937392    2.000000
      O       59.68544895   31.83221346  -39.79033993   -2.000000
      O       59.68544895   35.81124745  -43.76937392   -2.000000
      O       55.70641496   35.81124745  -39.79033993   -2.000000
      Mg      63.66448294   31.83221346  -39.79033993    2.000000
      O       63.66448294   31.83221346  -43.76937392   -2.000000
      Mg      67.64351693   31.83221346  -43.76937392    2.000000
      Mg      67.64351693   35.81124745  -39.79033993    2.000000
      Mg      63.66448294   35.81124745  -43.76937392    2.000000
      O       67.64351693   31.83221346  -39.79033993   -2.000000
      O       67.64351693   35.81124745  -43.76937392   -2.000000
      O       63.66448294   35.81124745  -39.79033993   -2.000000
      Mg      71.62255093   31.83221346  -39.79033993    2.000000
      O       71.62255093   31.83221346  -43.76937392   -2.000000
      Mg      75.60158492   31.83221346  -43.76937392    2.000000
      Mg      75.60158492   35.81124745  -39.79033993    2.000000
      Mg      71.62255093   35.81124745  -43.76937392    2.000000
      O       75.60158492   31.83221346  -39.79033993   -2.000000
      O       75.60158492   35.81124745  -43.76937392   -2.000000
      O       71.62255093   35.81124745  -39.79033993   -2.000000
      Mg      79.58061891   31.83221346  -39.79033993    2.000000
      O       79.58061891   31.83221346  -43.76937392   -2.000000
      Mg      83.55965291   31.83221346  -43.76937392    2.000000
      Mg      83.55965291   35.81124745  -39.79033993    2.000000
      Mg      79.58061891   35.81124745  -43.76937392    2.000000
      O       83.55965291   31.83221346  -39.79033993   -2.000000
      O       83.55965291   35.81124745  -43.76937392   -2.000000
      O       79.58061891   35.81124745  -39.79033993   -2.000000
      Mg      87.53868690   31.83221346  -39.79033993    2.000000
      O       87.53868690   31.83221346  -43.76937392   -2.000000
      Mg      91.51772089   31.83221346  -43.76937392    2.000000
      Mg      91.51772089   35.81124745  -39.79033993    2.000000
      Mg      87.53868690   35.81124745  -43.76937392    2.000000
      O       91.51772089   31.83221346  -39.79033993   -2.000000
      O       91.51772089   35.81124745  -43.76937392   -2.000000
      O       87.53868690   35.81124745  -39.79033993   -2.000000
      Mg       3.97897305   39.79028144  -43.76937392    2.000000
      Mg       3.97897305   43.76931544  -39.79033993    2.000000
      O        3.97897305   39.79028144  -39.79033993   -2.000000
      O        3.97897305   43.76931544  -43.76937392   -2.000000
      Mg       7.95800704   39.79028144  -39.79033993    2.000000
      O        7.95800704   39.79028144  -43.76937392   -2.000000
      Mg      11.93704104   39.79028144  -43.76937392    2.000000
      Mg      11.93704104   43.76931544  -39.79033993    2.000000
      Mg       7.95800704   43.76931544  -43.76937392    2.000000
      O       11.93704104   39.79028144  -39.79033993   -2.000000
      O       11.93704104   43.76931544  -43.76937392   -2.000000
      O        7.95800704   43.76931544  -39.79033993   -2.000000
      Mg      15.91607503   39.79028144  -39.79033993    2.000000
      O       15.91607503   39.79028144  -43.76937392   -2.000000
      Mg      19.89510902   39.79028144  -43.76937392    2.000000
      Mg      19.89510902   43.76931544  -39.79033993    2.000000
      Mg      15.91607503   43.76931544  -43.76937392    2.000000
      O       19.89510902   39.79028144  -39.79033993   -2.000000
      O       19.89510902   43.76931544  -43.76937392   -2.000000
      O       15.91607503   43.76931544  -39.79033993   -2.000000
      Mg      23.87414301   39.79028144  -39.79033993    2.000000
      O       23.87414301   39.79028144  -43.76937392   -2.000000
      Mg      27.85317701   39.79028144  -43.76937392    2.000000
      Mg      27.85317701   43.76931544  -39.79033993    2.000000
      Mg      23.87414301   43.76931544  -43.76937392    2.000000
      O       27.85317701   39.79028144  -39.79033993   -2.000000
      O       27.85317701   43.76931544  -43.76937392   -2.000000
      O       23.87414301   43.76931544  -39.79033993   -2.000000
      Mg      31.83221100   39.79028144  -39.79033993    2.000000
      O       31.83221100   39.79028144  -43.76937392   -2.000000
      Mg      35.81124499   39.79028144  -43.76937392    2.000000
      Mg      35.81124499   43.76931544  -39.79033993    2.000000
      Mg      31.83221100   43.76931544  -43.76937392    2.000000
      O       35.81124499   39.79028144  -39.79033993   -2.000000
      O       35.81124499   43.76931544  -43.76937392   -2.000000
      O       31.83221100   43.76931544  -39.79033993   -2.000000
      Mg      39.79027899   39.79028144  -39.79033993    2.000000
      O       39.79027899   39.79028144  -43.76937392   -2.000000
      Mg      43.76931298   39.79028144  -43.76937392    2.000000
      Mg      43.76931298   43.76931544  -39.79033993    2.000000
      Mg      39.79027899   43.76931544  -43.76937392    2.000000
      O       43.76931298   39.79028144  -39.79033993   -2.000000
      O       43.76931298   43.76931544  -43.76937392   -2.000000
      O       39.79027899   43.76931544  -39.79033993   -2.000000
      Mg      47.74834697   39.79028144  -39.79033993    2.000000
      O       47.74834697   39.79028144  -43.76937392   -2.000000
      Mg      51.72738096   39.79028144  -43.76937392    2.000000
      Mg      51.72738096   43.76931544  -39.79033993    2.000000
      Mg      47.74834697   43.76931544  -43.76937392    2.000000
      O       51.72738096   39.79028144  -39.79033993   -2.000000
      O       51.72738096   43.76931544  -43.76937392   -2.000000
      O       47.74834697   43.76931544  -39.79033993   -2.000000
      Mg      55.70641496   39.79028144  -39.79033993    2.000000
      O       55.70641496   39.79028144  -43.76937392   -2.000000
      Mg      59.68544895   39.79028144  -43.76937392    2.000000
      Mg      59.68544895   43.76931544  -39.79033993    2.000000
      Mg      55.70641496   43.76931544  -43.76937392    2.000000
      O       59.68544895   39.79028144  -39.79033993   -2.000000
      O       59.68544895   43.76931544  -43.76937392   -2.000000
      O       55.70641496   43.76931544  -39.79033993   -2.000000
      Mg      63.66448294   39.79028144  -39.79033993    2.000000
      O       63.66448294   39.79028144  -43.76937392   -2.000000
      Mg      67.64351693   39.79028144  -43.76937392    2.000000
      Mg      67.64351693   43.76931544  -39.79033993    2.000000
      Mg      63.66448294   43.76931544  -43.76937392    2.000000
      O       67.64351693   39.79028144  -39.79033993   -2.000000
      O       67.64351693   43.76931544  -43.76937392   -2.000000
      O       63.66448294   43.76931544  -39.79033993   -2.000000
      Mg      71.62255093   39.79028144  -39.79033993    2.000000
      O       71.62255093   39.79028144  -43.76937392   -2.000000
      Mg      75.60158492   39.79028144  -43.76937392    2.000000
      Mg      75.60158492   43.76931544  -39.79033993    2.000000
      Mg      71.62255093   43.76931544  -43.76937392    2.000000
      O       75.60158492   39.79028144  -39.79033993   -2.000000
      O       75.60158492   43.76931544  -43.76937392   -2.000000
      O       71.62255093   43.76931544  -39.79033993   -2.000000
      Mg      79.58061891   39.79028144  -39.79033993    2.000000
      O       79.58061891   39.79028144  -43.76937392   -2.000000
      Mg      83.55965291   39.79028144  -43.76937392    2.000000
      Mg      83.55965291   43.76931544  -39.79033993    2.000000
      Mg      79.58061891   43.76931544  -43.76937392    2.000000
      O       83.55965291   39.79028144  -39.79033993   -2.000000
      O       83.55965291   43.76931544  -43.76937392   -2.000000
      O       79.58061891   43.76931544  -39.79033993   -2.000000
      Mg      87.53868690   39.79028144  -39.79033993    2.000000
      O       87.53868690   39.79028144  -43.76937392   -2.000000
      Mg      91.51772089   39.79028144  -43.76937392    2.000000
      Mg      91.51772089   43.76931544  -39.79033993    2.000000
      Mg      87.53868690   43.76931544  -43.76937392    2.000000
      O       91.51772089   39.79028144  -39.79033993   -2.000000
      O       91.51772089   43.76931544  -43.76937392   -2.000000
      O       87.53868690   43.76931544  -39.79033993   -2.000000
      Mg       3.97897305   47.74834943  -43.76937392    2.000000
      Mg       3.97897305   51.72738342  -39.79033993    2.000000
      O        3.97897305   47.74834943  -39.79033993   -2.000000
      O        3.97897305   51.72738342  -43.76937392   -2.000000
      Mg       7.95800704   47.74834943  -39.79033993    2.000000
      O        7.95800704   47.74834943  -43.76937392   -2.000000
      Mg      11.93704104   47.74834943  -43.76937392    2.000000
      Mg      11.93704104   51.72738342  -39.79033993    2.000000
      Mg       7.95800704   51.72738342  -43.76937392    2.000000
      O       11.93704104   47.74834943  -39.79033993   -2.000000
      O       11.93704104   51.72738342  -43.76937392   -2.000000
      O        7.95800704   51.72738342  -39.79033993   -2.000000
      Mg      15.91607503   47.74834943  -39.79033993    2.000000
      O       15.91607503   47.74834943  -43.76937392   -2.000000
      Mg      19.89510902   47.74834943  -43.76937392    2.000000
      Mg      19.89510902   51.72738342  -39.79033993    2.000000
      Mg      15.91607503   51.72738342  -43.76937392    2.000000
      O       19.89510902   47.74834943  -39.79033993   -2.000000
      O       19.89510902   51.72738342  -43.76937392   -2.000000
      O       15.91607503   51.72738342  -39.79033993   -2.000000
      Mg      23.87414301   47.74834943  -39.79033993    2.000000
      O       23.87414301   47.74834943  -43.76937392   -2.000000
      Mg      27.85317701   47.74834943  -43.76937392    2.000000
      Mg      27.85317701   51.72738342  -39.79033993    2.000000
      Mg      23.87414301   51.72738342  -43.76937392    2.000000
      O       27.85317701   47.74834943  -39.79033993   -2.000000
      O       27.85317701   51.72738342  -43.76937392   -2.000000
      O       23.87414301   51.72738342  -39.79033993   -2.000000
      Mg      31.83221100   47.74834943  -39.79033993    2.000000
      O       31.83221100   47.74834943  -43.76937392   -2.000000
      Mg      35.81124499   47.74834943  -43.76937392    2.000000
      Mg      35.81124499   51.72738342  -39.79033993    2.000000
      Mg      31.83221100   51.72738342  -43.76937392    2.000000
      O       35.81124499   47.74834943  -39.79033993   -2.000000
      O       35.81124499   51.72738342  -43.76937392   -2.000000
      O       31.83221100   51.72738342  -39.79033993   -2.000000
      Mg      39.79027899   47.74834943  -39.79033993    2.000000
      O       39.79027899   47.74834943  -43.76937392   -2.000000
      Mg      43.76931298   47.74834943  -43.76937392    2.000000
      Mg      43.76931298   51.72738342  -39.79033993    2.000000
      Mg      39.79027899   51.72738342  -43.76937392    2.000000
      O       43.76931298   47.74834943  -39.79033993   -2.000000
      O       43.76931298   51.72738342  -43.76937392   -2.000000
      O       39.79027899   51.72738342  -39.79033993   -2.000000
      Mg      47.74834697   47.74834943  -39.79033993    2.000000
      O       47.74834697   47.74834943  -43.76937392   -2.000000
      Mg      51.72738096   47.74834943  -43.76937392    2.000000
      Mg      51.72738096   51.72738342  -39.79033993    2.000000
      Mg      47.74834697   51.72738342  -43.76937392    2.000000
      O       51.72738096   47.74834943  -39.79033993   -2.000000
      O       51.72738096   51.72738342  -43.76937392   -2.000000
      O       47.74834697   51.72738342  -39.79033993   -2.000000
      Mg      55.70641496   47.74834943  -39.79033993    2.000000
      O       55.70641496   47.74834943  -43.76937392   -2.000000
      Mg      59.68544895   47.74834943  -43.76937392    2.000000
      Mg      59.68544895   51.72738342  -39.79033993    2.000000
      Mg      55.70641496   51.72738342  -43.76937392    2.000000
      O       59.68544895   47.74834943  -39.79033993   -2.000000
      O       59.68544895   51.72738342  -43.76937392   -2.000000
      O       55.70641496   51.72738342  -39.79033993   -2.000000
      Mg      63.66448294   47.74834943  -39.79033993    2.000000
      O       63.66448294   47.74834943  -43.76937392   -2.000000
      Mg      67.64351693   47.74834943  -43.76937392    2.000000
      Mg      67.64351693   51.72738342  -39.79033993    2.000000
      Mg      63.66448294   51.72738342  -43.76937392    2.000000
      O       67.64351693   47.74834943  -39.79033993   -2.000000
      O       67.64351693   51.72738342  -43.76937392   -2.000000
      O       63.66448294   51.72738342  -39.79033993   -2.000000
      Mg      71.62255093   47.74834943  -39.79033993    2.000000
      O       71.62255093   47.74834943  -43.76937392   -2.000000
      Mg      75.60158492   47.74834943  -43.76937392    2.000000
      Mg      75.60158492   51.72738342  -39.79033993    2.000000
      Mg      71.62255093   51.72738342  -43.76937392    2.000000
      O       75.60158492   47.74834943  -39.79033993   -2.000000
      O       75.60158492   51.72738342  -43.76937392   -2.000000
      O       71.62255093   51.72738342  -39.79033993   -2.000000
      Mg      79.58061891   47.74834943  -39.79033993    2.000000
      O       79.58061891   47.74834943  -43.76937392   -2.000000
      Mg      83.55965291   47.74834943  -43.76937392    2.000000
      Mg      83.55965291   51.72738342  -39.79033993    2.000000
      Mg      79.58061891   51.72738342  -43.76937392    2.000000
      O       83.55965291   47.74834943  -39.79033993   -2.000000
      O       83.55965291   51.72738342  -43.76937392   -2.000000
      O       79.58061891   51.72738342  -39.79033993   -2.000000
      Mg      87.53868690   47.74834943  -39.79033993    2.000000
      O       87.53868690   47.74834943  -43.76937392   -2.000000
      Mg      91.51772089   47.74834943  -43.76937392    2.000000
      Mg      91.51772089   51.72738342  -39.79033993    2.000000
      Mg      87.53868690   51.72738342  -43.76937392    2.000000
      O       91.51772089   47.74834943  -39.79033993   -2.000000
      O       91.51772089   51.72738342  -43.76937392   -2.000000
      O       87.53868690   51.72738342  -39.79033993   -2.000000
      Mg       3.97897305   55.70641741  -43.76937392    2.000000
      Mg       3.97897305   59.68545141  -39.79033993    2.000000
      O        3.97897305   55.70641741  -39.79033993   -2.000000
      O        3.97897305   59.68545141  -43.76937392   -2.000000
      Mg       7.95800704   55.70641741  -39.79033993    2.000000
      O        7.95800704   55.70641741  -43.76937392   -2.000000
      Mg      11.93704104   55.70641741  -43.76937392    2.000000
      Mg      11.93704104   59.68545141  -39.79033993    2.000000
      Mg       7.95800704   59.68545141  -43.76937392    2.000000
      O       11.93704104   55.70641741  -39.79033993   -2.000000
      O       11.93704104   59.68545141  -43.76937392   -2.000000
      O        7.95800704   59.68545141  -39.79033993   -2.000000
      Mg      15.91607503   55.70641741  -39.79033993    2.000000
      O       15.91607503   55.70641741  -43.76937392   -2.000000
      Mg      19.89510902   55.70641741  -43.76937392    2.000000
      Mg      19.89510902   59.68545141  -39.79033993    2.000000
      Mg      15.91607503   59.68545141  -43.76937392    2.000000
      O       19.89510902   55.70641741  -39.79033993   -2.000000
      O       19.89510902   59.68545141  -43.76937392   -2.000000
      O       15.91607503   59.68545141  -39.79033993   -2.000000
      Mg      23.87414301   55.70641741  -39.79033993    2.000000
      O       23.87414301   55.70641741  -43.76937392   -2.000000
      Mg      27.85317701   55.70641741  -43.76937392    2.000000
      Mg      27.85317701   59.68545141  -39.79033993    2.000000
      Mg      23.87414301   59.68545141  -43.76937392    2.000000
      O       27.85317701   55.70641741  -39.79033993   -2.000000
      O       27.85317701   59.68545141  -43.76937392   -2.000000
      O       23.87414301   59.68545141  -39.79033993   -2.000000
      Mg      31.83221100   55.70641741  -39.79033993    2.000000
      O       31.83221100   55.70641741  -43.76937392   -2.000000
      Mg      35.81124499   55.70641741  -43.76937392    2.000000
      Mg      35.81124499   59.68545141  -39.79033993    2.000000
      Mg      31.83221100   59.68545141  -43.76937392    2.000000
      O       35.81124499   55.70641741  -39.79033993   -2.000000
      O       35.81124499   59.68545141  -43.76937392   -2.000000
      O       31.83221100   59.68545141  -39.79033993   -2.000000
      Mg      39.79027899   55.70641741  -39.79033993    2.000000
      O       39.79027899   55.70641741  -43.76937392   -2.000000
      Mg      43.76931298   55.70641741  -43.76937392    2.000000
      Mg      43.76931298   59.68545141  -39.79033993    2.000000
      Mg      39.79027899   59.68545141  -43.76937392    2.000000
      O       43.76931298   55.70641741  -39.79033993   -2.000000
      O       43.76931298   59.68545141  -43.76937392   -2.000000
      O       39.79027899   59.68545141  -39.79033993   -2.000000
      Mg      47.74834697   55.70641741  -39.79033993    2.000000
      O       47.74834697   55.70641741  -43.76937392   -2.000000
      Mg      51.72738096   55.70641741  -43.76937392    2.000000
      Mg      51.72738096   59.68545141  -39.79033993    2.000000
      Mg      47.74834697   59.68545141  -43.76937392    2.000000
      O       51.72738096   55.70641741  -39.79033993   -2.000000
      O       51.72738096   59.68545141  -43.76937392   -2.000000
      O       47.74834697   59.68545141  -39.79033993   -2.000000
      Mg      55.70641496   55.70641741  -39.79033993    2.000000
      O       55.70641496   55.70641741  -43.76937392   -2.000000
      Mg      59.68544895   55.70641741  -43.76937392    2.000000
      Mg      59.68544895   59.68545141  -39.79033993    2.000000
      Mg      55.70641496   59.68545141  -43.76937392    2.000000
      O       59.68544895   55.70641741  -39.79033993   -2.000000
      O       59.68544895   59.68545141  -43.76937392   -2.000000
      O       55.70641496   59.68545141  -39.79033993   -2.000000
      Mg      63.66448294   55.70641741  -39.79033993    2.000000
      O       63.66448294   55.70641741  -43.76937392   -2.000000
      Mg      67.64351693   55.70641741  -43.76937392    2.000000
      Mg      67.64351693   59.68545141  -39.79033993    2.000000
      Mg      63.66448294   59.68545141  -43.76937392    2.000000
      O       67.64351693   55.70641741  -39.79033993   -2.000000
      O       67.64351693   59.68545141  -43.76937392   -2.000000
      O       63.66448294   59.68545141  -39.79033993   -2.000000
      Mg      71.62255093   55.70641741  -39.79033993    2.000000
      O       71.62255093   55.70641741  -43.76937392   -2.000000
      Mg      75.60158492   55.70641741  -43.76937392    2.000000
      Mg      75.60158492   59.68545141  -39.79033993    2.000000
      Mg      71.62255093   59.68545141  -43.76937392    2.000000
      O       75.60158492   55.70641741  -39.79033993   -2.000000
      O       75.60158492   59.68545141  -43.76937392   -2.000000
      O       71.62255093   59.68545141  -39.79033993   -2.000000
      Mg      79.58061891   55.70641741  -39.79033993    2.000000
      O       79.58061891   55.70641741  -43.76937392   -2.000000
      Mg      83.55965291   55.70641741  -43.76937392    2.000000
      Mg      83.55965291   59.68545141  -39.79033993    2.000000
      Mg      79.58061891   59.68545141  -43.76937392    2.000000
      O       83.55965291   55.70641741  -39.79033993   -2.000000
      O       83.55965291   59.68545141  -43.76937392   -2.000000
      O       79.58061891   59.68545141  -39.79033993   -2.000000
      Mg      87.53868690   55.70641741  -39.79033993    2.000000
      O       87.53868690   55.70641741  -43.76937392   -2.000000
      Mg      91.51772089   55.70641741  -43.76937392    2.000000
      Mg      91.51772089   59.68545141  -39.79033993    2.000000
      Mg      87.53868690   59.68545141  -43.76937392    2.000000
      O       91.51772089   55.70641741  -39.79033993   -2.000000
      O       91.51772089   59.68545141  -43.76937392   -2.000000
      O       87.53868690   59.68545141  -39.79033993   -2.000000
      Mg       3.97897305   63.66448540  -43.76937392    2.000000
      Mg       3.97897305   67.64351939  -39.79033993    2.000000
      O        3.97897305   63.66448540  -39.79033993   -2.000000
      O        3.97897305   67.64351939  -43.76937392   -2.000000
      Mg       7.95800704   63.66448540  -39.79033993    2.000000
      O        7.95800704   63.66448540  -43.76937392   -2.000000
      Mg      11.93704104   63.66448540  -43.76937392    2.000000
      Mg      11.93704104   67.64351939  -39.79033993    2.000000
      Mg       7.95800704   67.64351939  -43.76937392    2.000000
      O       11.93704104   63.66448540  -39.79033993   -2.000000
      O       11.93704104   67.64351939  -43.76937392   -2.000000
      O        7.95800704   67.64351939  -39.79033993   -2.000000
      Mg      15.91607503   63.66448540  -39.79033993    2.000000
      O       15.91607503   63.66448540  -43.76937392   -2.000000
      Mg      19.89510902   63.66448540  -43.76937392    2.000000
      Mg      19.89510902   67.64351939  -39.79033993    2.000000
      Mg      15.91607503   67.64351939  -43.76937392    2.000000
      O       19.89510902   63.66448540  -39.79033993   -2.000000
      O       19.89510902   67.64351939  -43.76937392   -2.000000
      O       15.91607503   67.64351939  -39.79033993   -2.000000
      Mg      23.87414301   63.66448540  -39.79033993    2.000000
      O       23.87414301   63.66448540  -43.76937392   -2.000000
      Mg      27.85317701   63.66448540  -43.76937392    2.000000
      Mg      27.85317701   67.64351939  -39.79033993    2.000000
      Mg      23.87414301   67.64351939  -43.76937392    2.000000
      O       27.85317701   63.66448540  -39.79033993   -2.000000
      O       27.85317701   67.64351939  -43.76937392   -2.000000
      O       23.87414301   67.64351939  -39.79033993   -2.000000
      Mg      31.83221100   63.66448540  -39.79033993    2.000000
      O       31.83221100   63.66448540  -43.76937392   -2.000000
      Mg      35.81124499   63.66448540  -43.76937392    2.000000
      Mg      35.81124499   67.64351939  -39.79033993    2.000000
      Mg      31.83221100   67.64351939  -43.76937392    2.000000
      O       35.81124499   63.66448540  -39.79033993   -2.000000
      O       35.81124499   67.64351939  -43.76937392   -2.000000
      O       31.83221100   67.64351939  -39.79033993   -2.000000
      Mg      39.79027899   63.66448540  -39.79033993    2.000000
      O       39.79027899   63.66448540  -43.76937392   -2.000000
      Mg      43.76931298   63.66448540  -43.76937392    2.000000
      Mg      43.76931298   67.64351939  -39.79033993    2.000000
      Mg      39.79027899   67.64351939  -43.76937392    2.000000
      O       43.76931298   63.66448540  -39.79033993   -2.000000
      O       43.76931298   67.64351939  -43.76937392   -2.000000
      O       39.79027899   67.64351939  -39.79033993   -2.000000
      Mg      47.74834697   63.66448540  -39.79033993    2.000000
      O       47.74834697   63.66448540  -43.76937392   -2.000000
      Mg      51.72738096   63.66448540  -43.76937392    2.000000
      Mg      51.72738096   67.64351939  -39.79033993    2.000000
      Mg      47.74834697   67.64351939  -43.76937392    2.000000
      O       51.72738096   63.66448540  -39.79033993   -2.000000
      O       51.72738096   67.64351939  -43.76937392   -2.000000
      O       47.74834697   67.64351939  -39.79033993   -2.000000
      Mg      55.70641496   63.66448540  -39.79033993    2.000000
      O       55.70641496   63.66448540  -43.76937392   -2.000000
      Mg      59.68544895   63.66448540  -43.76937392    2.000000
      Mg      59.68544895   67.64351939  -39.79033993    2.000000
      Mg      55.70641496   67.64351939  -43.76937392    2.000000
      O       59.68544895   63.66448540  -39.79033993   -2.000000
      O       59.68544895   67.64351939  -43.76937392   -2.000000
      O       55.70641496   67.64351939  -39.79033993   -2.000000
      Mg      63.66448294   63.66448540  -39.79033993    2.000000
      O       63.66448294   63.66448540  -43.76937392   -2.000000
      Mg      67.64351693   63.66448540  -43.76937392    2.000000
      Mg      67.64351693   67.64351939  -39.79033993    2.000000
      Mg      63.66448294   67.64351939  -43.76937392    2.000000
      O       67.64351693   63.66448540  -39.79033993   -2.000000
      O       67.64351693   67.64351939  -43.76937392   -2.000000
      O       63.66448294   67.64351939  -39.79033993   -2.000000
      Mg      71.62255093   63.66448540  -39.79033993    2.000000
      O       71.62255093   63.66448540  -43.76937392   -2.000000
      Mg      75.60158492   63.66448540  -43.76937392    2.000000
      Mg      75.60158492   67.64351939  -39.79033993    2.000000
      Mg      71.62255093   67.64351939  -43.76937392    2.000000
      O       75.60158492   63.66448540  -39.79033993   -2.000000
      O       75.60158492   67.64351939  -43.76937392   -2.000000
      O       71.62255093   67.64351939  -39.79033993   -2.000000
      Mg      79.58061891   63.66448540  -39.79033993    2.000000
      O       79.58061891   63.66448540  -43.76937392   -2.000000
      Mg      83.55965291   63.66448540  -43.76937392    2.000000
      Mg      83.55965291   67.64351939  -39.79033993    2.000000
      Mg      79.58061891   67.64351939  -43.76937392    2.000000
      O       83.55965291   63.66448540  -39.79033993   -2.000000
      O       83.55965291   67.64351939  -43.76937392   -2.000000
      O       79.58061891   67.64351939  -39.79033993   -2.000000
      Mg      87.53868690   63.66448540  -39.79033993    2.000000
      O       87.53868690   63.66448540  -43.76937392   -2.000000
      Mg      91.51772089   63.66448540  -43.76937392    2.000000
      Mg      91.51772089   67.64351939  -39.79033993    2.000000
      Mg      87.53868690   67.64351939  -43.76937392    2.000000
      O       91.51772089   63.66448540  -39.79033993   -2.000000
      O       91.51772089   67.64351939  -43.76937392   -2.000000
      O       87.53868690   67.64351939  -39.79033993   -2.000000
      Mg       3.97897305   71.62255338  -43.76937392    2.000000
      Mg       3.97897305   75.60158738  -39.79033993    2.000000
      O        3.97897305   71.62255338  -39.79033993   -2.000000
      O        3.97897305   75.60158738  -43.76937392   -2.000000
      Mg       7.95800704   71.62255338  -39.79033993    2.000000
      O        7.95800704   71.62255338  -43.76937392   -2.000000
      Mg      11.93704104   71.62255338  -43.76937392    2.000000
      Mg      11.93704104   75.60158738  -39.79033993    2.000000
      Mg       7.95800704   75.60158738  -43.76937392    2.000000
      O       11.93704104   71.62255338  -39.79033993   -2.000000
      O       11.93704104   75.60158738  -43.76937392   -2.000000
      O        7.95800704   75.60158738  -39.79033993   -2.000000
      Mg      15.91607503   71.62255338  -39.79033993    2.000000
      O       15.91607503   71.62255338  -43.76937392   -2.000000
      Mg      19.89510902   71.62255338  -43.76937392    2.000000
      Mg      19.89510902   75.60158738  -39.79033993    2.000000
      Mg      15.91607503   75.60158738  -43.76937392    2.000000
      O       19.89510902   71.62255338  -39.79033993   -2.000000
      O       19.89510902   75.60158738  -43.76937392   -2.000000
      O       15.91607503   75.60158738  -39.79033993   -2.000000
      Mg      23.87414301   71.62255338  -39.79033993    2.000000
      O       23.87414301   71.62255338  -43.76937392   -2.000000
      Mg      27.85317701   71.62255338  -43.76937392    2.000000
      Mg      27.85317701   75.60158738  -39.79033993    2.000000
      Mg      23.87414301   75.60158738  -43.76937392    2.000000
      O       27.85317701   71.62255338  -39.79033993   -2.000000
      O       27.85317701   75.60158738  -43.76937392   -2.000000
      O       23.87414301   75.60158738  -39.79033993   -2.000000
      Mg      31.83221100   71.62255338  -39.79033993    2.000000
      O       31.83221100   71.62255338  -43.76937392   -2.000000
      Mg      35.81124499   71.62255338  -43.76937392    2.000000
      Mg      35.81124499   75.60158738  -39.79033993    2.000000
      Mg      31.83221100   75.60158738  -43.76937392    2.000000
      O       35.81124499   71.62255338  -39.79033993   -2.000000
      O       35.81124499   75.60158738  -43.76937392   -2.000000
      O       31.83221100   75.60158738  -39.79033993   -2.000000
      Mg      39.79027899   71.62255338  -39.79033993    2.000000
      O       39.79027899   71.62255338  -43.76937392   -2.000000
      Mg      43.76931298   71.62255338  -43.76937392    2.000000
      Mg      43.76931298   75.60158738  -39.79033993    2.000000
      Mg      39.79027899   75.60158738  -43.76937392    2.000000
      O       43.76931298   71.62255338  -39.79033993   -2.000000
      O       43.76931298   75.60158738  -43.76937392   -2.000000
      O       39.79027899   75.60158738  -39.79033993   -2.000000
      Mg      47.74834697   71.62255338  -39.79033993    2.000000
      O       47.74834697   71.62255338  -43.76937392   -2.000000
      Mg      51.72738096   71.62255338  -43.76937392    2.000000
      Mg      51.72738096   75.60158738  -39.79033993    2.000000
      Mg      47.74834697   75.60158738  -43.76937392    2.000000
      O       51.72738096   71.62255338  -39.79033993   -2.000000
      O       51.72738096   75.60158738  -43.76937392   -2.000000
      O       47.74834697   75.60158738  -39.79033993   -2.000000
      Mg      55.70641496   71.62255338  -39.79033993    2.000000
      O       55.70641496   71.62255338  -43.76937392   -2.000000
      Mg      59.68544895   71.62255338  -43.76937392    2.000000
      Mg      59.68544895   75.60158738  -39.79033993    2.000000
      Mg      55.70641496   75.60158738  -43.76937392    2.000000
      O       59.68544895   71.62255338  -39.79033993   -2.000000
      O       59.68544895   75.60158738  -43.76937392   -2.000000
      O       55.70641496   75.60158738  -39.79033993   -2.000000
      Mg      63.66448294   71.62255338  -39.79033993    2.000000
      O       63.66448294   71.62255338  -43.76937392   -2.000000
      Mg      67.64351693   71.62255338  -43.76937392    2.000000
      Mg      67.64351693   75.60158738  -39.79033993    2.000000
      Mg      63.66448294   75.60158738  -43.76937392    2.000000
      O       67.64351693   71.62255338  -39.79033993   -2.000000
      O       67.64351693   75.60158738  -43.76937392   -2.000000
      O       63.66448294   75.60158738  -39.79033993   -2.000000
      Mg      71.62255093   71.62255338  -39.79033993    2.000000
      O       71.62255093   71.62255338  -43.76937392   -2.000000
      Mg      75.60158492   71.62255338  -43.76937392    2.000000
      Mg      75.60158492   75.60158738  -39.79033993    2.000000
      Mg      71.62255093   75.60158738  -43.76937392    2.000000
      O       75.60158492   71.62255338  -39.79033993   -2.000000
      O       75.60158492   75.60158738  -43.76937392   -2.000000
      O       71.62255093   75.60158738  -39.79033993   -2.000000
      Mg      79.58061891   71.62255338  -39.79033993    2.000000
      O       79.58061891   71.62255338  -43.76937392   -2.000000
      Mg      83.55965291   71.62255338  -43.76937392    2.000000
      Mg      83.55965291   75.60158738  -39.79033993    2.000000
      Mg      79.58061891   75.60158738  -43.76937392    2.000000
      O       83.55965291   71.62255338  -39.79033993   -2.000000
      O       83.55965291   75.60158738  -43.76937392   -2.000000
      O       79.58061891   75.60158738  -39.79033993   -2.000000
      Mg      87.53868690   71.62255338  -39.79033993    2.000000
      O       87.53868690   71.62255338  -43.76937392   -2.000000
      Mg      91.51772089   71.62255338  -43.76937392    2.000000
      Mg      91.51772089   75.60158738  -39.79033993    2.000000
      Mg      87.53868690   75.60158738  -43.76937392    2.000000
      O       91.51772089   71.62255338  -39.79033993   -2.000000
      O       91.51772089   75.60158738  -43.76937392   -2.000000
      O       87.53868690   75.60158738  -39.79033993   -2.000000
      Mg       3.97897305   79.58062137  -43.76937392    2.000000
      Mg       3.97897305   83.55965536  -39.79033993    2.000000
      O        3.97897305   79.58062137  -39.79033993   -2.000000
      O        3.97897305   83.55965536  -43.76937392   -2.000000
      Mg       7.95800704   79.58062137  -39.79033993    2.000000
      O        7.95800704   79.58062137  -43.76937392   -2.000000
      Mg      11.93704104   79.58062137  -43.76937392    2.000000
      Mg      11.93704104   83.55965536  -39.79033993    2.000000
      Mg       7.95800704   83.55965536  -43.76937392    2.000000
      O       11.93704104   79.58062137  -39.79033993   -2.000000
      O       11.93704104   83.55965536  -43.76937392   -2.000000
      O        7.95800704   83.55965536  -39.79033993   -2.000000
      Mg      15.91607503   79.58062137  -39.79033993    2.000000
      O       15.91607503   79.58062137  -43.76937392   -2.000000
      Mg      19.89510902   79.58062137  -43.76937392    2.000000
      Mg      19.89510902   83.55965536  -39.79033993    2.000000
      Mg      15.91607503   83.55965536  -43.76937392    2.000000
      O       19.89510902   79.58062137  -39.79033993   -2.000000
      O       19.89510902   83.55965536  -43.76937392   -2.000000
      O       15.91607503   83.55965536  -39.79033993   -2.000000
      Mg      23.87414301   79.58062137  -39.79033993    2.000000
      O       23.87414301   79.58062137  -43.76937392   -2.000000
      Mg      27.85317701   79.58062137  -43.76937392    2.000000
      Mg      27.85317701   83.55965536  -39.79033993    2.000000
      Mg      23.87414301   83.55965536  -43.76937392    2.000000
      O       27.85317701   79.58062137  -39.79033993   -2.000000
      O       27.85317701   83.55965536  -43.76937392   -2.000000
      O       23.87414301   83.55965536  -39.79033993   -2.000000
      Mg      31.83221100   79.58062137  -39.79033993    2.000000
      O       31.83221100   79.58062137  -43.76937392   -2.000000
      Mg      35.81124499   79.58062137  -43.76937392    2.000000
      Mg      35.81124499   83.55965536  -39.79033993    2.000000
      Mg      31.83221100   83.55965536  -43.76937392    2.000000
      O       35.81124499   79.58062137  -39.79033993   -2.000000
      O       35.81124499   83.55965536  -43.76937392   -2.000000
      O       31.83221100   83.55965536  -39.79033993   -2.000000
      Mg      39.79027899   79.58062137  -39.79033993    2.000000
      O       39.79027899   79.58062137  -43.76937392   -2.000000
      Mg      43.76931298   79.58062137  -43.76937392    2.000000
      Mg      43.76931298   83.55965536  -39.79033993    2.000000
      Mg      39.79027899   83.55965536  -43.76937392    2.000000
      O       43.76931298   79.58062137  -39.79033993   -2.000000
      O       43.76931298   83.55965536  -43.76937392   -2.000000
      O       39.79027899   83.55965536  -39.79033993   -2.000000
      Mg      47.74834697   79.58062137  -39.79033993    2.000000
      O       47.74834697   79.58062137  -43.76937392   -2.000000
      Mg      51.72738096   79.58062137  -43.76937392    2.000000
      Mg      51.72738096   83.55965536  -39.79033993    2.000000
      Mg      47.74834697   83.55965536  -43.76937392    2.000000
      O       51.72738096   79.58062137  -39.79033993   -2.000000
      O       51.72738096   83.55965536  -43.76937392   -2.000000
      O       47.74834697   83.55965536  -39.79033993   -2.000000
      Mg      55.70641496   79.58062137  -39.79033993    2.000000
      O       55.70641496   79.58062137  -43.76937392   -2.000000
      Mg      59.68544895   79.58062137  -43.76937392    2.000000
      Mg      59.68544895   83.55965536  -39.79033993    2.000000
      Mg      55.70641496   83.55965536  -43.76937392    2.000000
      O       59.68544895   79.58062137  -39.79033993   -2.000000
      O       59.68544895   83.55965536  -43.76937392   -2.000000
      O       55.70641496   83.55965536  -39.79033993   -2.000000
      Mg      63.66448294   79.58062137  -39.79033993    2.000000
      O       63.66448294   79.58062137  -43.76937392   -2.000000
      Mg      67.64351693   79.58062137  -43.76937392    2.000000
      Mg      67.64351693   83.55965536  -39.79033993    2.000000
      Mg      63.66448294   83.55965536  -43.76937392    2.000000
      O       67.64351693   79.58062137  -39.79033993   -2.000000
      O       67.64351693   83.55965536  -43.76937392   -2.000000
      O       63.66448294   83.55965536  -39.79033993   -2.000000
      Mg      71.62255093   79.58062137  -39.79033993    2.000000
      O       71.62255093   79.58062137  -43.76937392   -2.000000
      Mg      75.60158492   79.58062137  -43.76937392    2.000000
      Mg      75.60158492   83.55965536  -39.79033993    2.000000
      Mg      71.62255093   83.55965536  -43.76937392    2.000000
      O       75.60158492   79.58062137  -39.79033993   -2.000000
      O       75.60158492   83.55965536  -43.76937392   -2.000000
      O       71.62255093   83.55965536  -39.79033993   -2.000000
      Mg      79.58061891   79.58062137  -39.79033993    2.000000
      O       79.58061891   79.58062137  -43.76937392   -2.000000
      Mg      83.55965291   79.58062137  -43.76937392    2.000000
[...]
 ITERATION  ENERGY          1e-ENERGY        2e-ENERGY     RMS[dD(SAO)]   TOL
  80  -4362.7621441478    -12128.008036     4891.4181523    0.519D-06 0.171D-12
          Norm of current diis error: 0.28007E-03
          max. resid. norm for Fia-block=  2.160D-04 for orbital     75a    alpha
          max. resid. fock norm         =  2.506D-04 for orbital    134a    alpha
 mo-orthogonalization: Cholesky decomposition
          Delta Eig. =     0.0006330697 eV 
         -------------------- FON Calculation ---------------------
                                 Fermi level F =        -0.36232
                   Total number of electrons N =       210.00000
           Occupation numbers calculated for T =       177.14700
                         Current HOMO-LUMO gap =     0.42777E+00
         ----------------------------------------------------------
 
                                              current damping :  0.050
 ITERATION  ENERGY          1e-ENERGY        2e-ENERGY     RMS[dD(SAO)]   TOL
  81  -4362.7621442055    -12128.008035     4891.4181519    0.538D-06 0.172D-12
          Norm of current diis error: 0.26420E-03
          max. resid. norm for Fia-block=  2.224D-04 for orbital     76a    alpha
          max. resid. fock norm         =  2.425D-04 for orbital    134a    alpha
          Delta Eig. =     0.0005522888 eV 
         -------------------- FON Calculation ---------------------
                                 Fermi level F =        -0.36232
                   Total number of electrons N =       210.00000
           Occupation numbers calculated for T =       177.14700
                         Current HOMO-LUMO gap =     0.42777E+00
         ----------------------------------------------------------
 
                                              current damping :  0.050
 ITERATION  ENERGY          1e-ENERGY        2e-ENERGY     RMS[dD(SAO)]   TOL
  82  -4362.7621442722    -12128.008035     4891.4181517    0.581D-06 0.171D-12
          Norm of current diis error: 0.24821E-03
          max. resid. norm for Fia-block=  2.253D-04 for orbital     77a    alpha
          max. resid. fock norm         =  2.530D-04 for orbital    134a    alpha
          Delta Eig. =     0.0005001889 eV 
         -------------------- FON Calculation ---------------------
                                 Fermi level F =        -0.36232
                   Total number of electrons N =       210.00000
           Occupation numbers calculated for T =       177.14700
                         Current HOMO-LUMO gap =     0.42777E+00
         ----------------------------------------------------------
 
                                              current damping :  0.050
 ITERATION  ENERGY          1e-ENERGY        2e-ENERGY     RMS[dD(SAO)]   TOL
  83  -4362.7621443431    -12128.008035     4891.4181514    0.616D-06 0.171D-12
          Norm of current diis error: 0.23227E-03
          max. resid. norm for Fia-block=  3.017D-04 for orbital     77a    alpha
          max. resid. fock norm         =  3.040D-04 for orbital     77a    alpha
          Delta Eig. =     0.0004406864 eV 
         -------------------- FON Calculation ---------------------
                                 Fermi level F =        -0.36232
                   Total number of electrons N =       210.00000
           Occupation numbers calculated for T =       177.14700
                         Current HOMO-LUMO gap =     0.42777E+00
         ----------------------------------------------------------
 density matrices became linear dependent...
 subr. ddmat can not establish optimal linear combination of delta densities !
 next fock matrix will be calculated from scratch !
 
                                              current damping :  0.100
 ITERATION  ENERGY          1e-ENERGY        2e-ENERGY     RMS[dD(SAO)]   TOL
  84  -4362.7621444169    -12128.008035     4891.4181514    0.690D-06 0.602D-12
          Norm of current diis error: 0.21547E-03
          max. resid. norm for Fia-block=  3.516D-04 for orbital     77a    alpha
          max. resid. fock norm         =  3.543D-04 for orbital     77a    alpha
          Delta Eig. =     0.0003591500 eV 
         -------------------- FON Calculation ---------------------
                                 Fermi level F =        -0.36232
                   Total number of electrons N =       210.00000
           Occupation numbers calculated for T =       177.14700
                         Current HOMO-LUMO gap =     0.42777E+00
         ----------------------------------------------------------
 
                                              current damping :  0.150
 ITERATION  ENERGY          1e-ENERGY        2e-ENERGY     RMS[dD(SAO)]   TOL
  85  -4362.7621444921    -12128.008035     4891.4181509    0.751D-06 0.382D-12
          Norm of current diis error: 0.19806E-03
          max. resid. norm for Fia-block=  3.980D-04 for orbital     77a    alpha
          max. resid. fock norm         =  4.011D-04 for orbital     77a    alpha
 mo-orthogonalization: Cholesky decomposition
          Delta Eig. =     0.0002724438 eV 
         -------------------- FON Calculation ---------------------
                                 Fermi level F =        -0.36232
                   Total number of electrons N =       210.00000
           Occupation numbers calculated for T =       177.14700
                         Current HOMO-LUMO gap =     0.42777E+00
         ----------------------------------------------------------
 
                                              current damping :  0.200
 ITERATION  ENERGY          1e-ENERGY        2e-ENERGY     RMS[dD(SAO)]   TOL
  86  -4362.7621445617    -12128.008035     4891.4181512    0.805D-06 0.249D-12
          Norm of current diis error: 0.18009E-03
          max. resid. norm for Fia-block=  4.272D-04 for orbital     77a    alpha
          max. resid. fock norm         =  4.305D-04 for orbital     77a    alpha
          Delta Eig. =     0.0001709605 eV 
         -------------------- FON Calculation ---------------------
                                 Fermi level F =        -0.36232
                   Total number of electrons N =       210.00000
           Occupation numbers calculated for T =       177.14700
                         Current HOMO-LUMO gap =     0.42777E+00
         ----------------------------------------------------------
 
                                              current damping :  0.250
 ITERATION  ENERGY          1e-ENERGY        2e-ENERGY     RMS[dD(SAO)]   TOL
  87  -4362.7621446216    -12128.008034     4891.4181505    0.825D-06 0.190D-12
          Norm of current diis error: 0.16208E-03
          max. resid. norm for Fia-block=  4.302D-04 for orbital     77a    alpha
          max. resid. fock norm         =  4.335D-04 for orbital     77a    alpha
          Delta Eig. =     0.0000650637 eV 
         -------------------- FON Calculation ---------------------
                                 Fermi level F =        -0.36232
                   Total number of electrons N =       210.00000
           Occupation numbers calculated for T =       177.14700
                         Current HOMO-LUMO gap =     0.42777E+00
         ----------------------------------------------------------
 
                                              current damping :  0.300
 ITERATION  ENERGY          1e-ENERGY        2e-ENERGY     RMS[dD(SAO)]   TOL
  88  -4362.7621446704    -12128.008035     4891.4181509    0.802D-06 0.172D-12
          Norm of current diis error: 0.14462E-03
          max. resid. norm for Fia-block=  4.104D-04 for orbital     77a    alpha
          max. resid. fock norm         =  4.136D-04 for orbital     77a    alpha
          Delta Eig. =     0.0000322081 eV 
         -------------------- FON Calculation ---------------------
                                 Fermi level F =        -0.36232
                   Total number of electrons N =       210.00000
           Occupation numbers calculated for T =       177.14700
                         Current HOMO-LUMO gap =     0.42777E+00
         ----------------------------------------------------------
 
                                              current damping :  0.350
 ITERATION  ENERGY          1e-ENERGY        2e-ENERGY     RMS[dD(SAO)]   TOL
  89  -4362.7621447088    -12128.008034     4891.4181499    0.743D-06 0.172D-12
          Norm of current diis error: 0.12824E-03
          max. resid. norm for Fia-block=  3.701D-04 for orbital     77a    alpha
          max. resid. fock norm         =  3.730D-04 for orbital     77a    alpha
          Delta Eig. =     0.0001094156 eV 
         -------------------- FON Calculation ---------------------
                                 Fermi level F =        -0.36232
                   Total number of electrons N =       210.00000
           Occupation numbers calculated for T =       177.14700
                         Current HOMO-LUMO gap =     0.42777E+00
         ----------------------------------------------------------
 
                                              current damping :  0.400
 ITERATION  ENERGY          1e-ENERGY        2e-ENERGY     RMS[dD(SAO)]   TOL
  90  -4362.7621447344    -12128.008034     4891.4181502    0.665D-06 0.171D-12
          Norm of current diis error: 0.11340E-03
          max. resid. norm for Fia-block=  3.168D-04 for orbital     77a    alpha
          max. resid. fock norm         =  3.192D-04 for orbital     77a    alpha
 mo-orthogonalization: Cholesky decomposition
          Delta Eig. =     0.0001600620 eV 
         -------------------- FON Calculation ---------------------
                                 Fermi level F =        -0.36232
                   Total number of electrons N =       210.00000
           Occupation numbers calculated for T =       177.14700
                         Current HOMO-LUMO gap =     0.42777E+00
         ----------------------------------------------------------
 
                                              current damping :  0.450
 ITERATION  ENERGY          1e-ENERGY        2e-ENERGY     RMS[dD(SAO)]   TOL
  91  -4362.7621447501    -12128.008033     4891.4181492    0.557D-06 0.172D-12
          Norm of current diis error: 0.10044E-03
          max. resid. norm for Fia-block=  2.571D-04 for orbital     77a    alpha
          max. resid. fock norm         =  2.591D-04 for orbital     77a    alpha
          Delta Eig. =     0.0001868873 eV 
         -------------------- FON Calculation ---------------------
                                 Fermi level F =        -0.36232
                   Total number of electrons N =       210.00000
           Occupation numbers calculated for T =       177.14700
                         Current HOMO-LUMO gap =     0.42777E+00
         ----------------------------------------------------------
 
                                              current damping :  0.500
 ITERATION  ENERGY          1e-ENERGY        2e-ENERGY     RMS[dD(SAO)]   TOL
  92  -4362.7621447593    -12128.008033     4891.4181494    0.454D-06 0.172D-12
          Norm of current diis error: 0.89575E-04
          max. resid. norm for Fia-block=  1.985D-04 for orbital     77a    alpha
          max. resid. fock norm         =  2.023D-04 for orbital    134a    alpha
          Delta Eig. =     0.0001911368 eV 
         -------------------- FON Calculation ---------------------
                                 Fermi level F =        -0.36232
                   Total number of electrons N =       210.00000
           Occupation numbers calculated for T =       177.14700
                         Current HOMO-LUMO gap =     0.42777E+00
         ----------------------------------------------------------
 
                                              current damping :  0.550
 ITERATION  ENERGY          1e-ENERGY        2e-ENERGY     RMS[dD(SAO)]   TOL
  93  -4362.7621447643    -12128.008033     4891.4181487    0.352D-06 0.172D-12
          Norm of current diis error: 0.80754E-04
          max. resid. norm for Fia-block=  1.476D-04 for orbital     77a    alpha
          max. resid. fock norm         =  1.613D-04 for orbital    134a    alpha
          Delta Eig. =     0.0001822461 eV 
         -------------------- FON Calculation ---------------------
                                 Fermi level F =        -0.36232
                   Total number of electrons N =       210.00000
           Occupation numbers calculated for T =       177.14700
                         Current HOMO-LUMO gap =     0.42777E+00
         ----------------------------------------------------------

 ENERGY & DENSITY CONVERGED !

 
                                              current damping :  0.600
 ITERATION  ENERGY          1e-ENERGY        2e-ENERGY     RMS[dD(SAO)]   TOL
  94  -4362.7621447643    -12128.008033     4891.4181488    0.271D-06 0.172D-12
          max. resid. norm for Fia-block=  2.735D-05 for orbital     75a    alpha
          max. resid. fock norm         =  2.893D-05 for orbital    134a    alpha

 convergence criteria satisfied after 94 iterations


                  ------------------------------------------ 
                 |  total energy      =  -4362.76214476426  |
                  ------------------------------------------ 
                 :  kinetic energy    =   3888.53044350964  :
                 :  potential energy  =  -8251.29258827389  :
                 :  virial theorem    =      1.89130012466  :
                 :  wavefunction norm =      1.00000000000  :
                  .......................................... 


 <geterg> : there is no data group $energy 


 <skperg> : $end is missing 


 orbitals $uhfmo_beta  will be written to file beta

 orbitals $uhfmo_alpha  will be written to file alpha
 
 alpha: 

    irrep                100a        101a        102a        103a        104a   
 eigenvalues H         -0.38190    -0.38156    -0.37738    -0.37737    -0.37639
            eV         -10.3920    -10.3830    -10.2692    -10.2690    -10.2422
 occupation              1.0000      1.0000      1.0000      1.0000      1.0000 

    irrep                105a        106a        107a        108a        109a   
 eigenvalues H          0.05864     0.08772     0.08772     0.12339     0.12465
            eV           1.5956      2.3870      2.3871      3.3577      3.3920
 
 beta:  

    irrep                102a        103a        104a        105a        106a   
 eigenvalues H         -0.38440    -0.38130    -0.38130    -0.37665    -0.36913
            eV         -10.4601    -10.3758    -10.3757    -10.2493    -10.0446
 occupation              1.0000      1.0000      1.0000      1.0000      1.0000 

    irrep                107a        108a        109a        110a        111a   
 eigenvalues H          0.05894     0.08766     0.08766     0.12349     0.12464
            eV           1.6038      2.3853      2.3854      3.3604      3.3916
 

                                             _ _ _ 
  IRREP     alpha occ.     beta occ.      tr(D*D-D)


 a        104.00000000   106.00000000    -0.50320071

   -------------------------------------------------

   sum    104.00000000   106.00000000    -0.50320071

 <S*S>     2.00640143

 
    +------------------------ Parameters ------------------------+
    -------------------------------------------------------------
      Maximum multipole moment used               : 25
      Multipole precision parameter               :  1.0000E-08
      Minimum separation between cells            :  3.0000E+00
    +-----------------------------------------------------------+
 
 Charge Neutrality tolerance :   0.1000000D-04
 Total charge                :   0.0000000D+00
 
 entered section...
 
 
 
 ==============================================================================
                           electrostatic moments
 ==============================================================================
 
              nuc           elec       ->  total
 ------------------------------------------------------------------------------
                          charge      
 ------------------------------------------------------------------------------
         308.000000    -210.000000      98.000000
 a-b                                    -2.000000
 
 ------------------------------------------------------------------------------
                       dipole moment  
 ------------------------------------------------------------------------------
   x       0.267118      -0.269785      -0.002667
   y       0.263899      -0.266665      -0.002766
   z    -663.925654     274.370452    -389.555202
 
   | dipole moment | =   389.5552 a.u. =   990.1505 debye 
 
 ------------------------------------------------------------------------------
                     quadrupole moment
 ------------------------------------------------------------------------------
  xx    7220.723469   -1987.843086    5232.880383
  yy    7220.723110   -1987.844297    5232.878813
  zz    4654.077322   -1873.052998    2781.024324
  xy       0.016872      -0.006724       0.010148
  xz       0.865845      -1.388846      -0.523002
  yz       0.858658      -1.381769      -0.523111
 
     1/3  trace=    4415.594507
     anisotropy=    2451.855609
 
 ==============================================================================
 
 
 ! grave: sending quit signal to master process
 

    dscf profiling
  --------------------------------------------------------------------
             module   cpu total (s)       %  wall total (s)       %

          dscf.total          5626.8  100.00          5541.2  100.00
        dscf.prepare            28.6    0.51            25.2    0.45
      prepare.oneint            23.9    0.43            24.0    0.43
      PC embed total            20.6    0.37            20.6    0.37
          PC prelim.             5.6    0.10             5.6    0.10
           PC 1el NF            13.5    0.24            13.5    0.24
         PC lat. sum             0.1    0.00             0.1    0.00
           PC 1el FF             1.5    0.03             1.5    0.03
     prepare.moinput             0.0    0.00             0.0    0.00
       prepare.hcore             4.4    0.08             0.8    0.01
            dscf.scf          5597.0   99.47          5514.9   99.52
             scf.pre             1.0    0.02             0.2    0.00
        scf.makedmat             3.5    0.06             7.9    0.14
          scf.shlupf          5286.8   93.96          5308.0   95.79
      shlupf.bc.dens             0.4    0.01             0.4    0.01
         dscf.client             0.0    0.00             0.0    0.00
         dscf.shloop          5277.4   93.79          5298.6   95.62
           shlupf.gs             0.9    0.02             0.9    0.02
          scf.symcar             0.3    0.01             0.3    0.01
        scf.makefock             1.0    0.02             7.1    0.13
          scf.newerg             0.1    0.00             0.0    0.00
          scf.newcnv            81.6    1.45            14.3    0.26
           scf.fdiag           148.5    2.64            35.4    0.64
         diag_tritrn            93.3    1.66            16.6    0.30
          diag_rdiag            51.4    0.91            18.2    0.33
          scf.modump            30.3    0.54            54.3    0.98
           ortho_all             2.0    0.04             2.0    0.04
            scf.post             2.0    0.03             1.3    0.02
        dscf.postscf             0.9    0.02             1.1    0.02
 


    ------------------------------------------------------------------------
         total  cpu-time :  1 hours 33 minutes and 47 seconds
         total wall-time :  1 hours 32 minutes and 22 seconds
    ------------------------------------------------------------------------


   ****  dscf : all done  ****


    2014-12-08 17:38:42.749 

